ITEM: TIMESTEP
0
ITEM: NUMBER OF ATOMS
250
ITEM: BOX BOUNDS pp pp pp
0.0000000000000000e+00 1.4332500000000000e+01
0.0000000000000000e+00 1.4332500000000000e+01
0.0000000000000000e+00 1.4332500000000000e+01
ITEM: ATOMS type x y z c_outsp[1] c_outsp[2] c_outsp[3] 
1 0 0 0 0.601604 0.795089 -0.0768528 
1 1.43325 1.43325 1.43325 0.113626 -0.541699 -0.832858 
1 2.8665 0 0 -0.886411 -0.439106 0.146495 
1 0 2.8665 0 -0.6953 0.28973 0.657734 
1 2.8665 2.8665 0 0.554121 -0.832386 -0.00913883 
1 0 0 2.8665 -0.747479 0.538659 0.388743 
1 2.8665 0 2.8665 -0.588379 -0.796322 0.14029 
1 0 2.8665 2.8665 -0.482632 0.696626 -0.530829 
1 2.8665 2.8665 2.8665 0.0297706 0.0454259 -0.998524 
1 4.29975 1.43325 1.43325 0.675871 -0.736033 0.0381222 
1 5.733 0 0 0.663844 -0.61313 0.428232 
1 7.16625 1.43325 1.43325 -0.650949 0.542425 -0.531074 
1 5.733 2.8665 0 0.44619 0.881634 -0.153742 
1 5.733 0 2.8665 -0.208977 -0.668334 0.713904 
1 5.733 2.8665 2.8665 -0.659906 -0.0377635 0.750398 
1 8.5995 0 0 -0.231682 -0.814981 -0.531158 
1 10.0328 1.43325 1.43325 -0.56841 -0.495884 -0.656513 
1 8.5995 2.8665 0 0.771572 0.625058 -0.118233 
1 8.5995 0 2.8665 -0.407359 -0.656737 -0.63463 
1 8.5995 2.8665 2.8665 -0.640366 -0.406624 -0.651605 
1 11.466 0 0 0.988387 -0.139368 -0.0605589 
1 12.8992 1.43325 1.43325 -0.880253 -0.47222 0.0465119 
1 11.466 2.8665 0 -0.4085 0.619364 0.670459 
1 11.466 0 2.8665 0.360244 0.886351 0.290873 
1 11.466 2.8665 2.8665 -0.0161606 0.714238 -0.699717 
1 1.43325 4.29975 1.43325 -0.270434 0.821029 -0.50277 
1 0 5.733 0 0.00933348 0.793432 0.608588 
1 1.43325 7.16625 1.43325 0.597062 0.801527 0.0327229 
1 2.8665 5.733 0 -0.474527 -0.851844 -0.221777 
1 0 5.733 2.8665 -0.146958 0.790203 -0.594964 
1 2.8665 5.733 2.8665 0.646579 0.756577 0.0976109 
1 4.29975 4.29975 1.43325 0.716332 0.635658 0.287764 
1 7.16625 4.29975 1.43325 -0.799232 -0.14276 0.583822 
1 4.29975 7.16625 1.43325 0.505598 0.712383 0.486704 
1 5.733 5.733 0 -0.762612 0.632136 -0.13721 
1 7.16625 7.16625 1.43325 -0.413733 0.343831 0.842974 
1 5.733 5.733 2.8665 0.829094 0.548837 0.106685 
1 10.0328 4.29975 1.43325 0.317295 0.670541 0.670595 
1 8.5995 5.733 0 -0.429661 -0.768479 0.474165 
1 10.0328 7.16625 1.43325 0.386419 -0.721168 0.574976 
1 8.5995 5.733 2.8665 0.495196 0.365004 0.788386 
1 12.8992 4.29975 1.43325 -0.0634633 -0.279383 0.95808 
1 11.466 5.733 0 0.998312 -0.028513 0.0505923 
1 12.8992 7.16625 1.43325 -0.585419 -0.350164 0.731212 
1 11.466 5.733 2.8665 0.307504 -0.950072 0.052958 
1 0 8.5995 0 -0.562573 -0.133672 -0.81587 
1 1.43325 10.0328 1.43325 -0.196374 0.944476 0.263445 
1 2.8665 8.5995 0 -0.0757736 0.887655 -0.454233 
1 0 8.5995 2.8665 -0.521364 0.64897 -0.554091 
1 2.8665 8.5995 2.8665 0.557678 0.703508 -0.440535 
1 4.29975 10.0328 1.43325 0.631115 -0.378741 -0.676941 
1 5.733 8.5995 0 -0.0909378 0.564365 -0.820501 
1 7.16625 10.0328 1.43325 -0.289717 -0.822639 -0.489213 
1 5.733 8.5995 2.8665 -0.893673 0.365701 0.260022 
1 8.5995 8.5995 0 0.0711297 0.956702 0.282243 
1 10.0328 10.0328 1.43325 -0.896872 -0.0630796 0.437769 
1 8.5995 8.5995 2.8665 0.909181 0.223695 -0.351214 
1 11.466 8.5995 0 -0.912484 -0.401039 -0.0808783 
1 12.8992 10.0328 1.43325 -0.945693 -0.148349 -0.289234 
1 11.466 8.5995 2.8665 0.00581331 -0.564762 0.825233 
1 0 11.466 0 0.884308 -0.225347 0.408922 
1 1.43325 12.8992 1.43325 -0.243903 0.903376 -0.352735 
1 2.8665 11.466 0 0.472867 0.539786 -0.696439 
1 0 11.466 2.8665 0.0248246 -0.995734 0.088871 
1 2.8665 11.466 2.8665 -0.581322 0.737007 0.344796 
1 4.29975 12.8992 1.43325 0.608003 0.714357 -0.346447 
1 5.733 11.466 0 0.269199 0.54067 -0.797 
1 7.16625 12.8992 1.43325 -0.609801 0.762155 0.2174 
1 5.733 11.466 2.8665 -0.576911 -0.557531 -0.596937 
1 8.5995 11.466 0 0.476552 -0.757204 -0.4467 
1 10.0328 12.8992 1.43325 -0.215389 0.941552 0.259013 
1 8.5995 11.466 2.8665 0.0491766 -0.27494 -0.960203 
1 11.466 11.466 0 0.253689 0.953842 0.160707 
1 12.8992 12.8992 1.43325 -0.531145 0.491886 -0.689879 
1 11.466 11.466 2.8665 0.536026 0.268104 0.800498 
1 1.43325 1.43325 4.29975 -0.835955 -0.309489 0.453205 
1 0 0 5.733 0.341058 -0.545387 -0.765658 
1 1.43325 1.43325 7.16625 0.209367 0.977658 0.0187077 
1 2.8665 0 5.733 0.825178 0.23185 0.515099 
1 0 2.8665 5.733 -0.185357 0.238616 -0.95326 
1 2.8665 2.8665 5.733 0.694942 0.717892 -0.0410624 
1 4.29975 1.43325 4.29975 0.305236 -0.894059 -0.327857 
1 7.16625 1.43325 4.29975 -0.84756 0.0920878 -0.522649 
1 4.29975 1.43325 7.16625 -0.676436 0.704623 -0.214336 
1 5.733 0 5.733 -0.667823 -0.472137 -0.575412 
1 7.16625 1.43325 7.16625 -0.744818 0.348446 -0.569062 
1 5.733 2.8665 5.733 0.140199 -0.522556 0.840999 
1 10.0328 1.43325 4.29975 -0.717107 -0.678722 -0.158411 
1 8.5995 0 5.733 0.482189 -0.580374 0.656247 
1 10.0328 1.43325 7.16625 -0.810605 0.562225 0.163778 
1 8.5995 2.8665 5.733 0.614402 0.125604 -0.778931 
1 12.8992 1.43325 4.29975 0.53685 -0.827187 0.165994 
1 11.466 0 5.733 -0.769659 0.274843 -0.576269 
1 12.8992 1.43325 7.16625 -0.278156 0.65176 -0.705577 
1 11.466 2.8665 5.733 0.866697 0.454854 0.204804 
1 1.43325 4.29975 4.29975 -0.576687 0.660636 -0.480617 
1 1.43325 7.16625 4.29975 -0.713204 0.209342 0.668967 
1 1.43325 4.29975 7.16625 0.665637 0.581902 -0.467243 
1 0 5.733 5.733 0.539809 -0.337469 -0.771182 
1 1.43325 7.16625 7.16625 -0.992063 -0.117762 -0.0440899 
1 2.8665 5.733 5.733 0.734795 -0.655739 0.173445 
1 4.29975 4.29975 4.29975 0.609332 -0.304312 0.732194 
1 7.16625 4.29975 4.29975 -0.682427 0.472195 -0.557966 
1 4.29975 7.16625 4.29975 -0.691154 0.720307 0.058849 
1 7.16625 7.16625 4.29975 -0.265018 -0.669898 0.693543 
1 4.29975 4.29975 7.16625 -0.959761 -0.0680732 -0.272443 
1 7.16625 4.29975 7.16625 -0.098722 0.649808 -0.75366 
1 4.29975 7.16625 7.16625 -0.748375 0.562739 -0.351083 
1 5.733 5.733 5.733 -0.372888 -0.492451 0.786414 
1 7.16625 7.16625 7.16625 -0.932686 0.355329 -0.0619493 
1 10.0328 4.29975 4.29975 0.768085 -0.63543 0.0792088 
1 10.0328 7.16625 4.29975 0.103218 -0.763156 -0.637918 
1 10.0328 4.29975 7.16625 -0.259877 -0.553479 0.79128 
1 8.5995 5.733 5.733 0.467896 0.414566 0.780518 
1 10.0328 7.16625 7.16625 -0.695097 0.373722 0.614143 
1 12.8992 4.29975 4.29975 0.920938 -0.235237 0.310704 
1 12.8992 7.16625 4.29975 -0.888305 0.362444 -0.282043 
1 12.8992 4.29975 7.16625 0.549538 -0.424594 -0.719533 
1 11.466 5.733 5.733 0.06409 -0.401042 -0.913815 
1 12.8992 7.16625 7.16625 0.801526 -0.276004 -0.53045 
1 1.43325 10.0328 4.29975 0.776611 0.451751 -0.439087 
1 0 8.5995 5.733 0.322138 0.88355 -0.339951 
1 1.43325 10.0328 7.16625 -0.563002 -0.590373 0.57835 
1 2.8665 8.5995 5.733 0.184207 0.735166 0.652379 
1 4.29975 10.0328 4.29975 0.529717 0.376796 0.759885 
1 7.16625 10.0328 4.29975 0.853066 0.415582 0.315548 
1 4.29975 10.0328 7.16625 0.430719 0.835131 0.342107 
1 5.733 8.5995 5.733 -0.620931 -0.443863 0.646089 
1 7.16625 10.0328 7.16625 -0.206913 0.0747717 0.975498 
1 10.0328 10.0328 4.29975 -0.838079 0.42853 0.337617 
1 8.5995 8.5995 5.733 0.803253 -0.129354 0.581423 
1 10.0328 10.0328 7.16625 -0.326329 0.759904 0.562189 
1 12.8992 10.0328 4.29975 -0.617572 -0.338354 -0.710015 
1 11.466 8.5995 5.733 0.710444 -0.549348 -0.439871 
1 12.8992 10.0328 7.16625 -0.590007 -0.583587 -0.557959 
1 1.43325 12.8992 4.29975 0.646328 0.15911 -0.746287 
1 0 11.466 5.733 0.342396 -0.774923 -0.531281 
1 1.43325 12.8992 7.16625 -0.5854 0.576664 0.569882 
1 2.8665 11.466 5.733 -0.690389 0.648903 0.319825 
1 4.29975 12.8992 4.29975 -0.650495 -0.732828 -0.199546 
1 7.16625 12.8992 4.29975 0.377606 0.559197 0.738046 
1 4.29975 12.8992 7.16625 0.437156 0.764199 0.47423 
1 5.733 11.466 5.733 0.629249 -0.437433 -0.642415 
1 7.16625 12.8992 7.16625 -0.0667582 -0.408103 0.910492 
1 10.0328 12.8992 4.29975 0.857304 0.353982 0.3738 
1 8.5995 11.466 5.733 -0.587585 0.54584 0.59733 
1 10.0328 12.8992 7.16625 -0.642714 -0.463791 0.609768 
1 12.8992 12.8992 4.29975 -0.6308 -0.109112 0.768235 
1 11.466 11.466 5.733 -0.0615673 0.744663 -0.664595 
1 12.8992 12.8992 7.16625 -0.109419 0.23972 -0.964656 
1 0 0 8.5995 -0.780989 0.144462 0.607608 
1 1.43325 1.43325 10.0328 0.493805 -0.0777295 -0.866092 
1 2.8665 0 8.5995 0.712876 0.16069 -0.682632 
1 0 2.8665 8.5995 0.566972 0.613624 0.549553 
1 2.8665 2.8665 8.5995 -0.262667 0.889292 -0.374386 
1 4.29975 1.43325 10.0328 -0.131959 0.791685 0.596508 
1 5.733 0 8.5995 -0.654487 -0.0938746 0.750223 
1 7.16625 1.43325 10.0328 0.222534 -0.889176 0.399807 
1 5.733 2.8665 8.5995 -0.343273 0.900758 0.266082 
1 8.5995 0 8.5995 0.277569 -0.880752 -0.383707 
1 10.0328 1.43325 10.0328 -0.526621 0.616772 0.585032 
1 8.5995 2.8665 8.5995 0.560096 0.674469 -0.481024 
1 11.466 0 8.5995 -0.135419 -0.815877 -0.562145 
1 12.8992 1.43325 10.0328 0.797944 -0.301017 0.522182 
1 11.466 2.8665 8.5995 0.409449 -0.599752 0.687494 
1 1.43325 4.29975 10.0328 -0.664936 -0.245833 0.705285 
1 0 5.733 8.5995 -0.359548 0.807087 -0.468333 
1 1.43325 7.16625 10.0328 0.342754 0.936895 0.0689024 
1 2.8665 5.733 8.5995 -0.70679 0.165023 0.687907 
1 4.29975 4.29975 10.0328 0.26194 0.242487 -0.934124 
1 7.16625 4.29975 10.0328 0.451977 -0.36979 -0.811771 
1 4.29975 7.16625 10.0328 0.84207 0.103988 0.529249 
1 5.733 5.733 8.5995 0.227527 -0.116276 -0.966805 
1 7.16625 7.16625 10.0328 0.301904 0.925855 -0.227259 
1 10.0328 4.29975 10.0328 0.47743 -0.053028 -0.877068 
1 8.5995 5.733 8.5995 -0.156189 0.648204 0.745276 
1 10.0328 7.16625 10.0328 -0.0346181 0.935271 0.352235 
1 12.8992 4.29975 10.0328 0.270607 -0.911179 -0.310685 
1 11.466 5.733 8.5995 -0.881361 -0.25238 0.399384 
1 12.8992 7.16625 10.0328 0.996524 -0.0740921 -0.0380785 
1 0 8.5995 8.5995 -0.484761 0.633036 -0.60355 
1 1.43325 10.0328 10.0328 -0.155789 0.554402 -0.817538 
1 2.8665 8.5995 8.5995 -0.486932 -0.681867 0.545852 
1 4.29975 10.0328 10.0328 0.416182 -0.0969081 -0.904102 
1 5.733 8.5995 8.5995 -0.421206 -0.737891 0.527354 
1 7.16625 10.0328 10.0328 0.504941 0.577585 -0.641429 
1 8.5995 8.5995 8.5995 0.281161 0.356226 -0.891096 
1 10.0328 10.0328 10.0328 0.768181 0.601917 0.218159 
1 11.466 8.5995 8.5995 -0.406704 0.905717 0.11945 
1 12.8992 10.0328 10.0328 -0.121965 -0.959541 -0.253782 
1 0 11.466 8.5995 -0.492445 0.681792 -0.540979 
1 1.43325 12.8992 10.0328 -0.668645 0.743443 0.0143648 
1 2.8665 11.466 8.5995 -0.415889 -0.511557 0.751894 
1 4.29975 12.8992 10.0328 -0.000633967 0.555334 0.831627 
1 5.733 11.466 8.5995 0.116524 -0.65646 0.745307 
1 7.16625 12.8992 10.0328 -0.768296 -0.54766 -0.331346 
1 8.5995 11.466 8.5995 0.391161 -0.56207 0.728746 
1 10.0328 12.8992 10.0328 -0.640883 0.64995 0.408454 
1 11.466 11.466 8.5995 -0.740948 0.657571 0.136372 
1 12.8992 12.8992 10.0328 -0.915062 -0.357984 0.185765 
1 0 0 11.466 -0.572809 -0.782248 -0.244904 
1 1.43325 1.43325 12.8992 0.546371 -0.537903 -0.641981 
1 2.8665 0 11.466 0.909921 -0.257836 -0.324907 
1 0 2.8665 11.466 0.404529 0.909293 0.0976837 
1 2.8665 2.8665 11.466 0.576323 0.435321 0.691626 
1 4.29975 1.43325 12.8992 -0.527088 -0.576894 -0.623996 
1 5.733 0 11.466 -0.924616 0.29751 0.237849 
1 7.16625 1.43325 12.8992 -0.0117693 0.475718 -0.879519 
1 5.733 2.8665 11.466 -0.170785 0.661429 0.730304 
1 8.5995 0 11.466 0.924514 0.0611557 -0.376211 
1 10.0328 1.43325 12.8992 0.211434 -0.136423 0.967824 
1 8.5995 2.8665 11.466 -0.466905 0.696897 -0.544366 
1 11.466 0 11.466 0.17514 -0.764346 0.620565 
1 12.8992 1.43325 12.8992 -0.452488 0.527883 0.718745 
1 11.466 2.8665 11.466 0.679023 -0.575245 -0.456094 
1 1.43325 4.29975 12.8992 -0.99324 -0.00767669 -0.115826 
1 0 5.733 11.466 -0.0995003 0.336755 -0.93632 
1 1.43325 7.16625 12.8992 0.170846 0.00661506 0.985276 
1 2.8665 5.733 11.466 0.209284 0.476928 -0.853663 
1 4.29975 4.29975 12.8992 -0.690427 -0.457434 -0.560414 
1 7.16625 4.29975 12.8992 0.472837 -0.677823 0.563011 
1 4.29975 7.16625 12.8992 0.665612 -0.520301 -0.535021 
1 5.733 5.733 11.466 0.847371 0.519152 -0.111552 
1 7.16625 7.16625 12.8992 -0.670989 0.639181 0.375793 
1 10.0328 4.29975 12.8992 -0.826612 -0.276055 0.490415 
1 8.5995 5.733 11.466 -0.23996 -0.885137 0.398687 
1 10.0328 7.16625 12.8992 0.149057 -0.802658 -0.577514 
1 12.8992 4.29975 12.8992 0.684732 0.161432 -0.710691 
1 11.466 5.733 11.466 -0.561011 -0.494154 -0.664137 
1 12.8992 7.16625 12.8992 0.463384 -0.137436 0.875435 
1 0 8.5995 11.466 -0.682378 0.667839 0.29724 
1 1.43325 10.0328 12.8992 -0.449086 0.739842 0.500955 
1 2.8665 8.5995 11.466 0.111327 -0.658277 -0.744498 
1 4.29975 10.0328 12.8992 0.68505 0.3542 -0.636591 
1 5.733 8.5995 11.466 -0.571076 -0.450872 0.685993 
1 7.16625 10.0328 12.8992 0.172474 0.695045 0.697973 
1 8.5995 8.5995 11.466 0.0221303 -0.829184 -0.558537 
1 10.0328 10.0328 12.8992 -0.290277 -0.695758 -0.657008 
1 11.466 8.5995 11.466 -0.626107 -0.775115 -0.0847788 
1 12.8992 10.0328 12.8992 0.843764 0.322756 0.428826 
1 0 11.466 11.466 -0.275727 0.698746 -0.660098 
1 1.43325 12.8992 12.8992 0.246994 0.917457 0.311877 
1 2.8665 11.466 11.466 0.627018 0.573956 0.526709 
1 4.29975 12.8992 12.8992 0.595635 0.413777 -0.688481 
1 5.733 11.466 11.466 0.58167 0.70438 -0.406827 
1 7.16625 12.8992 12.8992 -0.461677 -0.623745 -0.630711 
1 8.5995 11.466 11.466 0.18932 -0.973969 -0.124672 
1 10.0328 12.8992 12.8992 0.609219 -0.763256 -0.215155 
1 11.466 11.466 11.466 0.0722489 -0.705678 0.704839 
1 12.8992 12.8992 12.8992 -0.286848 0.40902 0.866269 
ITEM: TIMESTEP
100
ITEM: NUMBER OF ATOMS
250
ITEM: BOX BOUNDS pp pp pp
0.0000000000000000e+00 1.4332500000000000e+01
0.0000000000000000e+00 1.4332500000000000e+01
0.0000000000000000e+00 1.4332500000000000e+01
ITEM: ATOMS type x y z c_outsp[1] c_outsp[2] c_outsp[3] 
1 0.0243666 0.0181342 14.3269 0.332735 0.720764 -0.608101 
1 1.44722 1.40644 1.42899 -0.251313 -0.967895 0.00469185 
1 2.87719 0.000508739 0.0284294 -0.883582 0.458991 -0.0927876 
1 0.00314225 2.87155 0.00765317 -0.595963 0.481578 0.642581 
1 2.86217 2.85544 14.3101 -0.0956099 -0.895419 0.434837 
1 14.3308 14.3323 2.86624 -0.709068 0.669843 -0.220304 
1 2.86007 0.0197937 2.86412 -0.79759 -0.600221 -0.0598698 
1 0.00901609 2.87139 2.85717 -0.607708 0.34626 -0.714699 
1 2.86303 2.85909 2.84991 0.0219081 0.342361 -0.939313 
1 4.29657 1.42335 1.42027 0.38265 -0.626677 0.678864 
1 5.71847 0.00912816 0.0237191 -0.164697 -0.845773 0.507488 
1 7.16535 1.4262 1.42561 -0.206547 0.0012415 -0.978436 
1 5.73878 2.87473 14.33 0.499747 0.852648 -0.152458 
1 5.75393 14.3308 2.84565 -0.798399 -0.146106 0.584133 
1 5.73932 2.8486 2.86704 -0.800383 -0.0129036 0.59935 
1 8.58682 14.3244 14.3172 -0.685126 -0.41189 -0.60079 
1 10.033 1.42839 1.43036 -0.90094 -0.411839 -0.136736 
1 8.60576 2.87025 0.00412822 0.604758 0.593407 -0.531164 
1 8.60448 14.3264 2.86102 -0.820976 -0.543165 0.175983 
1 8.59784 2.87532 2.87958 -0.776957 -0.512604 -0.365479 
1 11.4677 0.00117733 0.00600731 0.710453 0.576932 -0.402996 
1 12.8933 1.43102 1.4354 -0.302119 -0.23157 0.924716 
1 11.4759 2.87597 0.00613368 -0.644109 0.24871 0.723372 
1 11.4638 0.0113563 2.85382 0.185775 0.836232 -0.51595 
1 11.4694 2.8982 2.85655 0.168488 0.711881 -0.68179 
1 1.43198 4.30549 1.42396 -0.431727 0.732171 -0.526818 
1 14.3234 5.72195 0.0140451 -0.0150844 0.903196 0.428964 
1 1.43042 7.17876 1.42617 0.0640917 0.560016 -0.825999 
1 2.85583 5.72544 0.000938667 -0.813109 -0.560803 0.156055 
1 14.3209 5.74121 2.86979 -0.608921 0.767585 -0.200072 
1 2.86358 5.7299 2.8651 0.527997 0.780287 -0.335218 
1 4.31818 4.30713 1.44042 0.813809 0.575058 -0.0838002 
1 7.15782 4.2902 1.43512 -0.00899084 -0.181399 0.983369 
1 4.31653 7.15597 1.43755 0.702917 0.262847 -0.660923 
1 5.74842 5.7229 0.00897294 -0.917572 0.338898 0.207871 
1 7.16556 7.15133 1.42187 0.0939015 0.491721 0.865675 
1 5.74649 5.75016 2.86137 -0.371574 0.908792 -0.189815 
1 10.0388 4.28926 1.4537 -0.235585 0.467863 0.851824 
1 8.60799 5.72348 0.018514 0.646065 -0.502414 0.574613 
1 10.0125 7.1586 1.4164 0.849768 -0.281476 0.445719 
1 8.59434 5.7326 2.86916 -0.0576111 0.0995685 0.993361 
1 12.8947 4.28888 1.41771 0.847531 0.0580553 0.527562 
1 11.4663 5.72551 0.00806534 0.392942 0.686471 0.611845 
1 12.8884 7.16228 1.42395 -0.351642 -0.187974 0.917068 
1 11.4713 5.75331 2.86485 0.750577 -0.517073 -0.411423 
1 0.0147468 8.62546 0.0180224 -0.691648 -0.68189 -0.238012 
1 1.42932 10.0146 1.44421 0.656476 0.733678 -0.175375 
1 2.86427 8.60352 0.00308667 0.600291 0.797406 -0.0615999 
1 0.0148087 8.60264 2.88092 -0.72237 0.562082 -0.402796 
1 2.86893 8.59503 2.87755 -0.239014 0.948212 -0.209205 
1 4.29998 10.0489 1.41754 -0.88127 -0.218052 -0.419304 
1 5.7264 8.60654 0.005013 -0.457883 0.441405 -0.77169 
1 7.15946 10.0252 1.43925 -0.867347 -0.492393 0.0725132 
1 5.73374 8.59829 2.85215 -0.670733 0.0983627 0.735147 
1 8.59416 8.61777 14.3314 -0.224545 0.971586 -0.0748374 
1 10.0212 10.0114 1.42107 -0.822122 0.0217039 0.568898 
1 8.59047 8.59549 2.86883 0.305985 0.88151 -0.359602 
1 11.4802 8.61015 0.0157374 -0.316556 -0.891494 -0.324083 
1 12.876 10.0341 1.42734 -0.896001 -0.443706 0.0175444 
1 11.4663 8.57747 2.85481 -0.300769 0.197549 0.933013 
1 0.0017735 11.4554 0.00211978 0.609939 -0.0240313 -0.792084 
1 1.43393 12.8986 1.44199 -0.199974 0.934383 -0.294855 
1 2.86237 11.4538 14.3323 0.107279 0.979446 -0.170811 
1 14.3149 11.4661 2.86489 -0.154157 -0.729664 0.666203 
1 2.86664 11.4523 2.87493 0.443205 0.690064 0.572172 
1 4.2986 12.91 1.43249 0.779665 0.189412 -0.596863 
1 5.74069 11.4697 14.3217 0.545429 0.144278 -0.825646 
1 7.17345 12.8868 1.45289 0.255304 0.833379 -0.490203 
1 5.72654 11.4425 2.87669 -0.919183 -0.298649 -0.256732 
1 8.59418 11.4801 0.00292519 -0.0231125 -0.98183 -0.188352 
1 10.0425 12.9123 1.42215 0.390103 0.864647 0.316552 
1 8.60272 11.4672 2.83077 -0.434685 -0.61614 -0.656826 
1 11.4654 11.4803 14.3231 -0.0557062 0.990791 0.12341 
1 12.8892 12.914 1.43268 -0.850586 0.32233 0.41546 
1 11.451 11.4484 2.85927 0.537125 0.798523 -0.271767 
1 1.43484 1.42966 4.29196 -0.544579 0.403493 0.735274 
1 14.3276 0.0149122 5.75289 -0.149436 -0.832815 -0.533 
1 1.41682 1.44763 7.16264 0.510692 0.74629 -0.426902 
1 2.86979 0.00777265 5.71175 0.941782 0.298328 0.155072 
1 0.00876579 2.85223 5.73638 -0.098672 0.885783 -0.453489 
1 2.85286 2.84733 5.72015 0.458007 0.757413 -0.465355 
1 4.30328 1.43067 4.31178 0.672355 -0.70648 0.220965 
1 7.16493 1.44013 4.28721 -0.169663 -0.639803 -0.749577 
1 4.31607 1.43872 7.15406 -0.655359 0.609817 0.445677 
1 5.7187 14.3208 5.74131 -0.201825 -0.936538 -0.286642 
1 7.1603 1.43357 7.1632 -0.702626 0.200132 -0.682836 
1 5.72794 2.87543 5.73834 0.197932 0.200722 0.959444 
1 10.0343 1.42439 4.305 -0.94955 -0.162177 -0.268427 
1 8.60932 0.0144211 5.7468 0.320248 0.268381 0.908522 
1 10.0158 1.42937 7.1649 -0.841501 0.487003 -0.23389 
1 8.58666 2.8581 5.71305 0.561623 -0.668109 -0.488067 
1 12.8917 1.47295 4.28454 0.192967 -0.861701 0.469293 
1 11.4697 0.0143213 5.74614 -0.715962 0.0767905 -0.693904 
1 12.8913 1.43178 7.15614 -0.0547226 0.879662 -0.47244 
1 11.4401 2.86952 5.73565 0.592802 -0.164709 0.788325 
1 1.42927 4.28797 4.29529 0.348468 0.931956 0.100137 
1 1.43856 7.16383 4.30222 0.801186 0.0520943 0.596143 
1 1.43559 4.30306 7.17536 0.0783318 0.625732 -0.776095 
1 14.3192 5.7487 5.74021 -0.264393 -0.231049 -0.936329 
1 1.4415 7.16939 7.17077 -0.823301 0.035436 0.566497 
1 2.84977 5.73398 5.74213 0.932842 -0.305358 -0.191211 
1 4.31373 4.31524 4.27613 0.982555 -0.163109 0.0893326 
1 7.18033 4.28358 4.30166 -0.790564 -0.237759 -0.564339 
1 4.31227 7.17015 4.30131 -0.589742 -0.165407 0.790471 
1 7.18155 7.18188 4.29685 0.929495 -0.236141 0.283331 
1 4.31106 4.29833 7.15802 -0.846403 -0.0873236 0.525334 
1 7.1689 4.28091 7.17177 -0.456475 0.494794 -0.739466 
1 4.27444 7.16515 7.16145 -0.414482 -0.761254 -0.498695 
1 5.742 5.72273 5.71261 -0.41078 0.155913 0.898304 
1 7.15511 7.16759 7.15519 -0.848978 -0.511707 0.131881 
1 10.0732 4.27275 4.29288 0.629198 -0.764382 -0.140823 
1 10.0076 7.1697 4.30811 0.391575 0.316401 -0.864037 
1 10.0236 4.29554 7.16256 -0.20546 -0.943236 0.260945 
1 8.61102 5.7395 5.74052 0.179816 0.532338 0.827214 
1 10.0321 7.16545 7.18676 -0.295301 0.308157 0.904343 
1 12.9028 4.31173 4.31554 0.0695932 -0.974391 -0.213822 
1 12.9077 7.15764 4.27653 -0.107736 0.938968 -0.326699 
1 12.8695 4.29051 7.15534 0.458933 -0.252751 -0.851761 
1 11.4647 5.73067 5.71647 0.822594 -0.0793327 -0.563067 
1 12.8911 7.16224 7.20001 -0.178998 -0.838858 -0.514078 
1 1.45109 10.0429 4.28493 0.0987365 0.461629 -0.881561 
1 14.3171 8.60666 5.72446 0.691648 0.104155 -0.714685 
1 1.44523 10.0429 7.15679 -0.151726 0.00525136 0.988409 
1 2.87578 8.60558 5.74296 -0.260369 0.944993 0.19798 
1 4.29689 10.0027 4.28523 0.656245 0.73722 -0.160778 
1 7.16714 10.0428 4.28995 0.506977 0.829586 0.234011 
1 4.29557 10.0469 7.14377 -0.800613 0.502836 0.325844 
1 5.74538 8.59442 5.74322 0.29073 -0.309003 0.905535 
1 7.17278 10.0245 7.1803 -0.0161185 -0.323941 0.94594 
1 10.034 10.0174 4.29241 -0.619947 0.177673 0.764263 
1 8.59747 8.59414 5.73011 0.517283 0.808961 0.279286 
1 10.022 10.0405 7.15583 -0.409908 0.835077 0.366908 
1 12.9105 10.0211 4.31648 -0.686825 -0.369939 -0.625633 
1 11.4734 8.59781 5.72751 0.251424 -0.960647 -0.118078 
1 12.8906 10.0392 7.16948 -0.866335 0.244828 -0.435342 
1 1.41288 12.9111 4.31564 0.71307 -0.0670438 -0.69788 
1 0.0124053 11.4724 5.75249 -0.285038 -0.956182 0.0668579 
1 1.43091 12.9002 7.16347 -0.469239 0.688454 0.553033 
1 2.8714 11.458 5.73533 -0.335796 0.169176 0.926618 
1 4.27804 12.9065 4.30278 -0.492374 -0.849198 -0.190869 
1 7.19278 12.8972 4.30925 -0.0342588 0.900504 0.433497 
1 4.29656 12.8993 7.15578 -0.295508 0.902603 0.313022 
1 5.72219 11.463 5.73292 0.403146 0.2489 -0.880638 
1 7.18374 12.9036 7.15333 -0.116183 -0.612378 0.781981 
1 10.031 12.9196 4.30096 0.761288 0.548247 -0.346217 
1 8.57808 11.4617 5.72905 -0.195828 -0.339232 0.920094 
1 10.0384 12.8978 7.16477 -0.568066 -0.327532 0.754999 
1 12.8986 12.9015 4.30369 -0.507279 0.529081 0.680251 
1 11.4717 11.48 5.72377 -0.184405 -0.238254 -0.953535 
1 12.9064 12.9021 7.16263 -0.15458 -0.839085 -0.521576 
1 0.0107381 14.3287 8.58259 -0.223699 0.696557 0.681738 
1 1.42109 1.4454 10.0503 -0.279324 0.504232 -0.817146 
1 2.86065 14.3322 8.58756 -0.857758 -0.0617826 -0.510328 
1 14.3044 2.88485 8.62265 0.996988 -0.0618173 0.0468298 
1 2.86417 2.85504 8.59484 -0.275539 0.959396 0.0603057 
1 4.30113 1.42778 10.0275 0.303075 0.903341 0.303515 
1 5.72871 14.3245 8.60711 -0.455306 0.0162083 0.890187 
1 7.17031 1.41442 10.0286 0.496224 -0.849018 0.181465 
1 5.7558 2.88129 8.61464 0.110866 0.90234 -0.416523 
1 8.60468 14.3297 8.61583 0.728127 -0.491375 0.477893 
1 10.0237 1.43519 10.0304 -0.937318 -0.0782244 0.339581 
1 8.60621 2.8549 8.59344 0.734487 0.168788 -0.657297 
1 11.483 14.3162 8.59717 0.182669 -0.809498 0.557984 
1 12.9106 1.45593 10.0577 0.52448 -0.0749619 0.848116 
1 11.457 2.86403 8.61539 0.0568204 -0.870798 0.488347 
1 1.43914 4.3113 10.0298 0.546726 -0.436841 0.714326 
1 0.00181811 5.73325 8.6132 0.367162 0.907901 -0.202257 
1 1.41014 7.16909 10.0296 0.279038 0.734766 -0.618269 
1 2.89945 5.73352 8.59569 -0.208744 0.631686 0.746591 
1 4.31301 4.2979 10.0133 -0.7071 0.342124 -0.618838 
1 7.17493 4.28711 10.0102 -0.380697 0.144594 -0.913325 
1 4.29239 7.1594 10.0322 0.703792 -0.240285 0.668536 
1 5.72495 5.74745 8.60029 -0.431448 -0.59581 -0.677394 
1 7.15606 7.18103 10.0351 0.468888 0.810887 -0.350152 
1 10.0423 4.29161 10.0314 0.611863 -0.400384 -0.682142 
1 8.59559 5.71002 8.59834 0.509183 0.776182 0.371852 
1 10.0308 7.17417 10.0316 0.434489 0.896605 -0.0855463 
1 12.9102 4.28987 10.07 -0.156915 -0.504439 -0.849069 
1 11.4588 5.70962 8.60218 -0.981905 0.185991 0.0356408 
1 12.8985 7.15763 10.0461 0.508895 -0.834793 -0.210111 
1 0.01722 8.59877 8.59557 -0.333348 0.346526 -0.876812 
1 1.40241 10.0269 10.0305 -0.506714 0.178708 -0.843389 
1 2.85979 8.60158 8.61446 -0.0224306 -0.333713 0.942408 
1 4.31465 10.0403 10.0436 0.490369 0.640357 -0.591169 
1 5.74036 8.59081 8.59447 -0.123937 -0.679024 0.723578 
1 7.16446 10.0503 10.0137 0.589831 0.807305 -0.0189123 
1 8.60561 8.5897 8.60385 -0.935682 0.0482136 -0.349536 
1 10.0299 10.0271 10.0073 0.881906 0.471324 0.00978501 
1 11.4624 8.59861 8.58359 -0.257966 0.944745 -0.202265 
1 12.9255 10.0185 10.0211 -0.431131 -0.439437 0.788049 
1 0.00625603 11.4655 8.58987 -0.4493 -0.500149 -0.740257 
1 1.43514 12.9015 10.0433 -0.323837 0.944571 -0.0539913 
1 2.86327 11.4626 8.58802 0.689082 -0.12577 0.713686 
1 4.2885 12.8774 10.0388 0.377249 0.0745836 0.923104 
1 5.73293 11.4744 8.59007 0.839767 -0.417679 0.346895 
1 7.16907 12.8917 10.0176 -0.0903312 -0.496928 -0.863078 
1 8.59521 11.4785 8.57967 0.556039 0.154594 0.816652 
1 10.0217 12.9159 10.0454 -0.849899 0.098706 -0.517619 
1 11.4395 11.4662 8.61418 -0.784626 0.316611 -0.533029 
1 12.9161 12.89 10.0317 -0.879121 -0.450598 0.155263 
1 14.328 14.3262 11.4651 -0.251481 -0.967619 -0.0217147 
1 1.43196 1.41943 12.8991 0.55465 -0.571277 -0.604984 
1 2.89276 14.3308 11.4559 0.316563 -0.360827 -0.877264 
1 0.000796328 2.88254 11.4571 0.390694 0.808481 0.440132 
1 2.87473 2.86453 11.4802 0.881163 0.0963141 0.462898 
1 4.29577 1.43919 12.8984 -0.53056 -0.372506 -0.76141 
1 5.75323 0.00946079 11.4754 -0.72476 0.564302 0.39533 
1 7.1667 1.4403 12.8852 -0.121117 0.664558 -0.737356 
1 5.72982 2.85689 11.4537 0.584097 0.525666 0.618471 
1 8.61307 14.3247 11.464 0.932856 -0.168157 0.318597 
1 10.0263 1.43266 12.8885 0.251091 -0.450701 0.856634 
1 8.60371 2.85753 11.4858 -0.293864 0.917903 -0.266641 
1 11.4547 14.3324 11.4838 0.349636 -0.273291 0.89614 
1 12.9078 1.4326 12.9006 -0.45876 -0.280829 0.843015 
1 11.4844 2.8548 11.4476 0.954064 -0.203194 -0.220169 
1 1.42995 4.30078 12.8761 -0.926517 -0.0430437 0.373782 
1 14.294 5.76037 11.4828 -0.508086 0.642741 -0.573351 
1 1.43851 7.15758 12.9036 0.839655 0.0960862 0.534553 
1 2.86286 5.7299 11.4862 0.233275 0.445729 -0.864239 
1 4.27998 4.29886 12.9127 -0.863285 -0.164375 -0.4772 
1 7.18697 4.30472 12.8898 0.806766 -0.503103 0.309865 
1 4.27899 7.14948 12.9084 -0.0379345 -0.827517 -0.560157 
1 5.71578 5.75758 11.4733 0.99857 -0.00949351 -0.0526109 
1 7.18746 7.15317 12.9149 -0.876472 0.46738 0.115555 
1 10.0208 4.29081 12.8922 -0.875186 -0.460064 0.149633 
1 8.61895 5.73343 11.4762 -0.585468 -0.764052 0.27102 
1 10.0217 7.18682 12.9137 0.355079 -0.931208 0.0822827 
1 12.8899 4.27983 12.9023 -0.00769665 0.188078 -0.982124 
1 11.4681 5.72964 11.467 -0.0620843 0.0531713 -0.996654 
1 12.8996 7.1765 12.8999 0.391709 0.0309777 0.919567 
1 0.00347904 8.61825 11.4684 -0.441566 0.637522 0.631337 
1 1.44261 10.0304 12.9244 0.728854 0.315076 0.607864 
1 2.85891 8.58892 11.4537 -0.522524 0.127553 -0.84303 
1 4.29818 10.0528 12.8973 0.321223 0.340888 -0.883522 
1 5.72664 8.57718 11.4691 -0.571182 -0.641223 0.51243 
1 7.17108 10.0422 12.8912 0.579767 0.205763 0.788373 
1 8.5903 8.60567 11.481 -0.377407 -0.650955 -0.658651 
1 10.0324 10.0404 12.8944 0.265081 -0.656273 -0.706426 
1 11.4699 8.61728 11.4818 -0.376595 -0.632701 -0.676658 
1 12.9041 10.0162 12.9004 0.641885 0.711575 0.285736 
1 14.3288 11.4749 11.4592 -0.842025 0.195386 -0.50281 
1 1.42633 12.9021 12.9074 0.931428 0.319484 0.174274 
1 2.86313 11.4611 11.4705 0.852266 -0.0907474 -0.515178 
1 4.30537 12.9136 12.9032 0.506065 0.433145 -0.745845 
1 5.72823 11.4675 11.4792 0.850794 0.423388 -0.311274 
1 7.15241 12.8853 12.8957 -0.327092 0.211484 -0.921024 
1 8.63783 11.4664 11.466 -0.113305 -0.729063 -0.675003 
1 10.0167 12.9027 12.886 0.799357 -0.600856 0.000554233 
1 11.4593 11.4581 11.4882 -0.0523021 -0.504302 0.861942 
1 12.908 12.9136 12.9018 -0.147694 -0.107674 0.983155 
ITEM: TIMESTEP
200
ITEM: NUMBER OF ATOMS
250
ITEM: BOX BOUNDS pp pp pp
0.0000000000000000e+00 1.4332500000000000e+01
0.0000000000000000e+00 1.4332500000000000e+01
0.0000000000000000e+00 1.4332500000000000e+01
ITEM: ATOMS type x y z c_outsp[1] c_outsp[2] c_outsp[3] 
1 0.0456327 0.0317485 14.3241 -0.221285 0.742222 -0.632566 
1 1.45976 1.38507 1.42484 0.0384288 -0.227823 0.972944 
1 2.88618 -0.00100659 0.0520654 -0.551868 0.831229 -0.0670789 
1 0.00673338 2.87571 0.0141181 -0.769622 0.37813 0.514489 
1 2.85658 2.84537 14.2911 -0.151678 -0.451443 0.879314 
1 14.328 14.3327 2.86574 -0.997767 -0.065073 -0.0150704 
1 2.85588 0.0369771 2.8627 -0.720446 -0.682004 -0.125808 
1 0.0188717 2.87682 2.84742 -0.98164 0.0405151 -0.186388 
1 2.85942 2.85451 2.83488 -0.304123 0.590468 -0.747567 
1 4.29404 1.41713 1.4102 0.144945 0.148292 0.978264 
1 5.70684 0.0175925 0.0443929 -0.608839 -0.19861 0.768029 
1 7.1683 1.42031 1.41794 -0.118205 -0.86857 -0.481263 
1 5.74548 2.88234 14.326 0.577208 0.80048 -0.161438 
1 5.77174 14.3285 2.82942 -0.952063 0.0368292 -0.303678 
1 5.74556 2.83184 2.86739 -0.984704 -0.0483097 0.167406 
1 8.57315 14.3173 14.3042 -0.784838 0.177113 -0.593853 
1 10.0312 1.42523 1.42888 -0.844537 0.180586 0.50413 
1 8.60946 2.87279 0.00750817 0.417931 0.621665 -0.66247 
1 8.60844 14.3241 2.85516 -0.817998 0.457541 0.348619 
1 8.59651 2.8797 2.89135 -0.326951 -0.783496 -0.528429 
1 11.4689 0.00189178 0.00999151 -0.445326 0.754638 -0.481878 
1 12.889 1.43009 1.43612 0.535902 0.552499 0.638399 
1 11.4834 2.88275 0.0109975 -0.530194 -0.0973856 0.842265 
1 11.4621 0.0203393 2.84389 -0.536172 0.447185 -0.715922 
1 11.4742 2.92436 2.84686 0.271182 0.556964 -0.785017 
1 1.43123 4.31146 1.41734 -0.862646 0.465269 -0.198412 
1 14.3144 5.71182 0.0259061 -0.225577 0.973665 0.0330498 
1 1.42914 7.18922 1.42134 -0.643892 0.654025 -0.397057 
1 2.8464 5.71624 0.00184328 -0.760465 0.274495 0.588512 
1 14.3132 5.74795 2.87068 0.23286 0.927723 0.291732 
1 2.86012 5.72715 2.86355 0.744497 0.454841 -0.488717 
1 4.33407 4.31347 1.44863 0.45237 0.283031 -0.845727 
1 7.15185 4.2826 1.43765 0.465969 0.0448416 0.883664 
1 4.32874 7.14605 1.4402 -0.289454 -0.328424 -0.899085 
1 5.76184 5.71409 0.0155184 -0.742391 0.468424 0.478994 
1 7.16692 7.13816 1.41153 0.28626 0.940372 0.183725 
1 5.76002 5.76526 2.85719 -0.738191 0.596496 0.315067 
1 10.0433 4.28125 1.47033 -0.235093 -0.107993 0.965955 
1 8.6168 5.7123 0.0357639 0.784197 0.398221 0.475872 
1 9.99418 7.15104 1.40123 0.818193 0.572721 -0.0505067 